version 3
run General-0-20260115-01:43:25-23996
attr configname General
attr datetime 20260115-01:43:25
attr datetimef 20260115-014325
attr experiment General
attr inifile omnetpp.ini
attr iterationvars ""
attr iterationvarsd ""
attr iterationvarsf ""
attr measurement ""
attr network Tictoc15
attr processid 23996
attr repetition 0
attr replication #0
attr resultdir results
attr runnumber 0
attr seedset 0
config network Tictoc15
config record-eventlog true
config Tictoc4.t*c.limit 5
config Tictoc7.tic.delayTime exponential(3s)
config Tictoc7.toc.delayTime "truncnormal(3s, 1s)"

vector 0 Tictoc15.tic[5] HopCount ETV
vector 1 Tictoc15.tic[0] HopCount ETV
vector 2 Tictoc15.tic[3] HopCount ETV
vector 3 Tictoc15.tic[4] HopCount ETV
vector 4 Tictoc15.tic[1] HopCount ETV
vector 5 Tictoc15.tic[2] HopCount ETV
0	18	1.7	17
0	76	7.5	2
0	78	7.7	1
0	108	10.7	29
0	236	23.5	21
0	336	33.5	6
0	350	34.9	3
0	366	36.5	6
1	29	2.8	11
1	139	13.8	31
1	153	15.2	8
1	159	15.8	2
1	189	18.8	9
1	215	21.4	12
1	251	25	2
1	317	31.6	8
1	329	32.8	6
1	347	34.6	4
1	383	38.2	17
1	393	39.2	9
2	74	7.3	45
2	180	17.9	1
2	278	27.7	26
2	290	28.9	8
3	77	7.6	1
3	79	7.8	1
3	141	14	1
3	157	15.6	4
3	179	17.8	19
3	291	29	1
3	309	30.8	5
3	323	32.2	6
3	337	33.6	1
3	351	35	1
4	140	13.9	1
4	160	15.9	1
4	190	18.9	1
4	252	25.1	1
4	282	28.1	4
4	304	30.3	13
4	330	32.9	1
4	360	35.9	9
4	384	38.3	1
4	394	39.3	1
5	145	14.4	4
5	203	20.2	13
5	249	24.8	13
5	343	34.2	6

